[Molden Format]
[Title]
Written by TeraChem
[Atoms] Angs
O   1   8    0.00000    0.00000    0.00000
H   2   1    0.00000    0.79377    0.00000
H   3   1    0.00000    0.00000    0.79377
[GTO]
    1 0
 s    6 1.00
        5484.671875          0.001831
        825.234924          0.013950
        188.046967          0.068445
         52.964500          0.232714
         16.897570          0.470193
          5.799635          0.358521
 s    3 1.00
         15.539616         -0.110778
          3.599934         -0.148026
          1.013762          1.130767
 s    1 1.00
          0.270006          1.000000
 p    3 1.00
         15.539616          0.070874
          3.599934          0.339753
          1.013762          0.727159
 p    1 1.00
          0.270006          1.000000

    2 0
 s    3 1.00
         18.731136          0.033495
          2.825394          0.234727
          0.640122          0.813757
 s    1 1.00
          0.161278          1.000000

    3 0
 s    3 1.00
         18.731136          0.033495
          2.825394          0.234727
          0.640122          0.813757
 s    1 1.00
          0.161278          1.000000
[MO]
 Ene=   -19.1121
 Spin= Alpha
 Occup= 2.0
    1   -0.99492
    2   -0.02879
    3    0.01421
    4   -0.00000
    5   -0.00213
    6   -0.00213
    7    0.00000
    8    0.00201
    9    0.00201
   10    0.00071
   11   -0.00375
   12    0.00071
   13   -0.00375
 Ene=    -1.1407
 Spin= Alpha
 Occup= 2.0
    1    0.20200
    2   -0.45010
    3   -0.32093
    4   -0.00000
    5   -0.15059
    6   -0.15058
    7   -0.00000
    8   -0.02742
    9   -0.02742
   10   -0.20817
   11   -0.00240
   12   -0.20816
   13   -0.00240
 Ene=    -0.5672
 Spin= Alpha
 Occup= 2.0
    1   -0.00000
    2    0.00000
    3    0.00000
    4   -0.00000
    5   -0.38795
    6    0.38794
    7    0.00000
    8   -0.14091
    9    0.14092
   10   -0.29198
   11   -0.15239
   12    0.29198
   13    0.15239
 Ene=    -0.3879
 Spin= Alpha
 Occup= 2.0
    1    0.10615
    2   -0.23060
    3   -0.45835
    4   -0.00001
    5    0.38121
    6    0.38121
    7   -0.00000
    8    0.23417
    9    0.23417
   10    0.14914
   11    0.06809
   12    0.14913
   13    0.06809
 Ene=    -0.3101
 Spin= Alpha
 Occup= 2.0
    1   -0.00000
    2    0.00000
    3    0.00001
    4   -0.64820
    5   -0.00000
    6   -0.00000
    7   -0.50288
    8   -0.00000
    9   -0.00000
   10   -0.00000
   11   -0.00000
   12   -0.00000
   13   -0.00001
 Ene=     0.0853
 Spin= Alpha
 Occup= 0.0
    1    0.08420
    2   -0.13689
    3   -1.32249
    4   -0.00000
    5   -0.16491
    6   -0.16490
    7   -0.00000
    8   -0.29586
    9   -0.29585
   10    0.03151
   11    1.04756
   12    0.03151
   13    1.04751
 Ene=     0.1983
 Spin= Alpha
 Occup= 0.0
    1    0.00000
    2   -0.00000
    3   -0.00002
    4   -0.00000
    5    0.25447
    6   -0.25447
    7   -0.00000
    8    0.55884
    9   -0.55885
   10   -0.04326
   11   -1.80594
   12    0.04326
   13    1.80597
 Ene=     0.8183
 Spin= Alpha
 Occup= 0.0
    1    0.00000
    2   -0.00000
    3    0.00000
    4    0.00000
    5   -0.05234
    6    0.05236
    7   -0.00000
    8    0.89579
    9   -0.89580
   10   -0.91841
   11   -0.04163
   12    0.91840
   13    0.04164
 Ene=     0.8842
 Spin= Alpha
 Occup= 0.0
    1   -0.00000
    2    0.00000
    3    0.00001
    4    0.95702
    5   -0.00001
    6   -0.00001
    7   -1.04075
    8    0.00002
    9    0.00002
   10   -0.00000
   11   -0.00001
   12   -0.00000
   13   -0.00001
 Ene=     0.9086
 Spin= Alpha
 Occup= 0.0
    1   -0.04747
    2    0.15327
    3    0.54505
    4   -0.00002
    5   -0.63913
    6   -0.63913
    7    0.00002
    8    0.95512
    9    0.95510
   10   -0.17109
   11   -0.36194
   12   -0.17108
   13   -0.36194
 Ene=     1.1643
 Spin= Alpha
 Occup= 0.0
    1   -0.00000
    2    0.00003
    3   -0.00003
    4   -0.00000
    5    0.73310
    6   -0.73309
    7    0.00000
    8   -0.94014
    9    0.94015
   10   -0.45771
   11    1.37669
   12    0.45766
   13   -1.37665
 Ene=     1.2723
 Spin= Alpha
 Occup= 0.0
    1    0.10296
    2   -1.09392
    3    0.78352
    4    0.00000
    5   -0.31323
    6   -0.31327
    7   -0.00000
    8   -0.18038
    9   -0.18034
   10    0.93359
   11   -0.56137
   12    0.93363
   13   -0.56145
 Ene=     1.4747
 Spin= Alpha
 Occup= 0.0
    1    0.00625
    2   -1.39767
    3    3.40716
    4    0.00000
    5    0.09674
    6    0.09674
    7   -0.00000
    8    0.87846
    9    0.87847
   10   -0.95322
   11   -0.72912
   12   -0.95322
   13   -0.72913
